HEM
    73
   4.0439148   1.8887803  -0.0000023   4.3260873   1.9534094  -2.0597600
   4.1834070   3.0747337  -2.8513876   4.4557792   2.7287078  -4.1908575
   4.3987376   3.7030758  -5.3430091   5.1111222   4.5102551  -5.1725106
   3.3932738   4.1168224  -5.4201858   4.7495188   3.0078510  -6.6716230
   4.0391791   2.2027595  -6.8596262   5.7570279   2.5961901  -6.6119498
   4.6808385   4.0239833  -7.8093783   5.7366846   4.6549893  -8.0825454
   3.5731831   4.1594953  -8.3944731   4.7725459   1.3548283  -4.2054823
   5.1320214   0.5619718  -5.4392796   6.0223061   0.9898561  -5.9001571
   5.3291572  -0.4735023  -5.1617350   4.3044588   0.5964215  -6.1478369
   4.6854015   0.8974850  -2.8745642   4.9121555  -0.3762557  -2.4239345
   5.1905696  -1.1537346  -3.1199317   4.8274818  -0.8206250  -1.1307732
   4.4893990  -0.0186822  -0.0597981   5.0608578  -2.1315550  -0.6669862
   5.4542089  -3.3010369  -1.5374384   6.3978175  -3.0816241  -2.0369991
   5.5691837  -4.1918177  -0.9198703   4.6799718  -3.4750646  -2.2846808
   4.8565607  -2.1177758   0.7280667   4.9935120  -3.3004289   1.6568702
   5.2716296  -4.2668897   1.2631645   4.7716400  -3.1519270   2.9597976
   4.4935211  -2.1854676   3.3535058   4.8695932  -3.9977979   3.6241075
   4.5037230  -0.7987885   1.0800300   4.2153388  -0.3292567   2.3343324
   4.2463714  -0.9981695   3.1816769   3.8676013   0.9307824   2.7445517
   3.7424379   2.0116195   1.8957141   3.5826222   1.3459837   4.0615539
   3.6123042   0.4510145   5.2773866   4.6122078   0.0341994   5.3980432
   3.3517985   1.0311349   6.1626533   2.8943632  -0.3592487   5.1503653
   3.2761179   2.7210244   4.0030876   2.9061858   3.5985140   5.1749503
   2.8587250   3.1797737   6.1693366   2.6387967   4.8870739   4.9825539
   2.6862555   5.3058165   3.9881685   2.3742107   5.5146826   5.8207075
   3.3818701   3.1098711   2.6518975   3.1699124   4.3607521   2.1349151
   2.8894870   5.1743526   2.7874607   3.2545800   4.8051218   0.8417535
   3.5926616   4.0031802  -0.2292229   3.0212008   6.1160517   0.3779680
   2.6278527   7.2855330   1.2484222   3.4020943   7.4595629   1.9956595
   2.5128718   8.1763133   0.6308545   1.6842479   7.0661183   1.7479892
   3.2254883   6.1022722  -1.0170864   3.5783235   4.7832848  -1.3690519
   3.8667017   4.3137535  -2.6233558   3.8356658   4.9826667  -3.4706998
   3.0757070   7.3148295  -1.9044254   3.7743851   8.0880475  -1.5849214
   2.0565371   7.6946087  -1.8325896   3.3684129   6.9623289  -3.3746861
   2.6707123   6.1952933  -3.7107966   4.3885608   6.5887298  -3.4631278
   3.2063847   8.2141107  -4.2393764   4.2271422   8.9330755  -4.4089160
   2.0636410   8.4375736  -4.7208337
