MGD
    69
   3.5400032   1.4197788   0.0000019   3.4820573   2.2395572   0.9577334
   4.2241585   1.9354975   2.2288913   4.9263123   1.0972615   2.2869037
   4.0701542   2.8317658   3.2681924   4.7529558   2.5918225   4.5038434
   5.3280157   1.7116659   4.6388639   4.7249725   3.1879316   5.3359773
   3.2254151   4.0994638   3.2242188   2.4965679   4.3624340   1.7935695
   2.5844842   3.4917576   0.8349260   1.8464425   3.9068009  -0.1881173
   1.3486653   5.1183855   0.1427627   0.7467653   5.7353151  -0.3151567
   1.8198219   5.3624586   1.4911101   1.5439643   6.4290834   2.1248729
   1.9090193   7.7472222   1.2567456   1.3292555   8.6759264   1.8325506
   2.0284718   9.2720607   2.9477840   2.2733712   8.4114110   3.6394974
   0.9050905   9.4012252   1.2793221   3.3451623   8.0062093   1.4337169
   3.6380654   8.0501867   2.3762761   1.5440405   7.7052328   0.2848668
   1.8289249   6.3930860   2.9756994  -0.0148739   6.6000962   2.3618837
  -0.1178156   7.9277714   2.4408625  -0.1017904   8.1438178   3.5611072
  -1.3346952   8.3687512   1.8519443  -1.2267474   8.5676772   0.9272390
  -1.5507782   9.1971889   2.2021216  -2.4876205   7.4738469   2.1519600
  -3.8855196   7.9348561   2.5429556  -4.4685791   8.8839603   1.5398385
  -4.7564456   6.7859991   2.7319836  -3.6764038   8.7380881   4.1873561
  -3.9183798   7.9821311   5.5093775  -3.1064114   8.8470372   6.6052195
  -3.3234526   6.5752470   5.5484014  -5.5093724   8.0411838   5.8494356
  -5.9723819   6.9821644   6.7365370  -6.2784807   6.0590107   6.0404717
  -5.2782704   6.5821168   7.4106143  -7.4029169   7.4270812   7.3424040
  -8.3079054   6.4961499   7.0584959  -7.9869735   4.8441643   6.9405330
  -9.7081305   7.0193104   7.3896060 -11.1023441   5.8011997   6.9996844
  -7.3038674   7.1831137   8.5684484  -7.6228284   8.9405948   7.1234511
  -9.0142182   9.1436838   7.5416356  -8.7981712   9.2056917   8.6755733
 -10.0741009   8.3837853   7.2337344 -11.0272504   8.6568484   7.6768355
 -10.1821920   8.4827966   5.6083308 -10.3322285   7.7207731   4.8723219
 -10.3371795   9.9295691   5.1193998 -11.0272517  10.2095750   3.8253960
 -11.4990972   9.3679226   3.2726509 -11.2912789  11.6106775   3.5453776
 -11.7342538  11.8556292   2.6575398 -10.6652697  12.6976216   4.5402977
 -11.0103141  14.0837603   4.0062669 -11.4722291  14.4806787   3.1264997
 -10.4664768  14.7305271   4.6610147  -9.9884496  12.4856926   5.7019007
  -9.7594712  11.1497629   6.0318790  -9.0253619  10.7947093   7.3429688
  -8.7032515  11.5528747   7.8920864
