SF4
     8
   3.5400032   1.4197788   0.0000019   5.6089413   0.5677413   0.4779886
   5.0269831   2.2138169   1.9890282   2.7640735   2.5608777   1.8600390
   3.8172018   4.0089807   0.4148679   3.8731563   3.0039723  -1.6420539
   5.7842925   2.6589348  -0.4380054   5.9113445   4.1879302   1.2309224
