%VERSION  VERSION_STAMP = V0001.000  DATE = 02/13/26  11:06:37                  
%FLAG TITLE                                                                     
%FORMAT(20a4)                                                                   
HEM                                                                             
%FLAG POINTERS                                                                  
%FORMAT(10I8)                                                                   
      73       6      30      50      62      82      84     156       0       0
     415       1      50      82     156      17      32      11      12       0
       0       0       0       0       0       0       0       0      73       0
       0
%FLAG ATOM_NAME                                                                 
%FORMAT(20a4)                                                                   
FE  NA  C1A C2A CAA HP71HP72CBA HP73HP74CGA O1A O2A C3A CMA HM81HM82HM83C4A CHB 
HDM C1B NB  C2B CMB HM11HM12HM13C3B CAB HV2 CBB HVC2HVT2C4B CHC HAM C1C NC  C2C 
CMC HM31HM32HM33C3C CAC HV4 CBC HVC4HVT4C4C CHD HBM C1D ND  C2D CMD HM51HM52HM53
C3D C4D CHA HGM CAD HP61HP62CBD HP63HP64CGD O1D O2D 
%FLAG CHARGE                                                                    
%FORMAT(5E16.8)                                                                 
  4.55557500E+00 -3.28001400E+00  5.46669000E-01 -3.64446000E-01 -2.91556800E+00
  1.82223000E+00  1.82223000E+00 -5.46669000E+00  1.82223000E+00  1.82223000E+00
  5.46669000E+00 -9.11115000E+00 -9.11115000E+00  3.64446000E-01 -4.82890950E+00
  1.36667250E+00  1.36667250E+00  1.36667250E+00  3.64446000E-01 -2.00445300E+00
  2.73334500E+00  5.46669000E-01 -3.28001400E+00  3.64446000E-01 -4.82890950E+00
  1.36667250E+00  1.36667250E+00  1.36667250E+00 -9.11115000E-01 -2.36889900E+00
  2.73334500E+00 -5.46669000E+00  1.82223000E+00  1.82223000E+00  3.64446000E-01
 -2.00445300E+00  2.73334500E+00  5.46669000E-01 -3.28001400E+00  3.64446000E-01
 -4.82890950E+00  1.36667250E+00  1.36667250E+00  1.36667250E+00 -9.11115000E-01
 -2.18667600E+00  2.73334500E+00 -5.46669000E+00  1.82223000E+00  1.82223000E+00
  3.64446000E-01 -2.00445300E+00  2.73334500E+00  5.46669000E-01 -3.28001400E+00
  3.64446000E-01 -4.82890950E+00  1.36667250E+00  1.36667250E+00  1.36667250E+00
 -3.64446000E-01  3.64446000E-01 -2.00445300E+00  2.73334500E+00 -2.91556800E+00
  1.82223000E+00  1.82223000E+00 -5.46669000E+00  1.82223000E+00  1.82223000E+00
  5.46669000E+00 -9.11115000E+00 -9.11115000E+00
%FLAG ATOMIC_NUMBER                                                             
%FORMAT(10I8)                                                                   
      -1       7       6       6       6       1       1       6       1       1
       6       8       8       6       6       1       1       1       6       6
       1       6      -1       6       6       1       1       1       6       6
       1       6       1       1       6       6       1       6       7       6
       6       1       1       1       6       6       1       6       1       1
       6       6       1       6      -1       6       6       1       1       1
       6       6       6       1       6       1       1       6       1       1
       6       8       8
%FLAG MASS                                                                      
%FORMAT(5E16.8)                                                                 
  5.58500000E+01  1.40100000E+01  1.20100000E+01  1.20100000E+01  1.20100000E+01
  1.00800000E+00  1.00800000E+00  1.20100000E+01  1.00800000E+00  1.00800000E+00
  1.20100000E+01  1.60000000E+01  1.60000000E+01  1.20100000E+01  1.20100000E+01
  1.00800000E+00  1.00800000E+00  1.00800000E+00  1.20100000E+01  1.20100000E+01
  1.00800000E+00  1.20100000E+01  1.40100000E+01  1.20100000E+01  1.20100000E+01
  1.00800000E+00  1.00800000E+00  1.00800000E+00  1.20100000E+01  1.20100000E+01
  1.00800000E+00  1.20100000E+01  1.00800000E+00  1.00800000E+00  1.20100000E+01
  1.20100000E+01  1.00800000E+00  1.20100000E+01  1.40100000E+01  1.20100000E+01
  1.20100000E+01  1.00800000E+00  1.00800000E+00  1.00800000E+00  1.20100000E+01
  1.20100000E+01  1.00800000E+00  1.20100000E+01  1.00800000E+00  1.00800000E+00
  1.20100000E+01  1.20100000E+01  1.00800000E+00  1.20100000E+01  1.40100000E+01
  1.20100000E+01  1.20100000E+01  1.00800000E+00  1.00800000E+00  1.00800000E+00
  1.20100000E+01  1.20100000E+01  1.20100000E+01  1.00800000E+00  1.20100000E+01
  1.00800000E+00  1.00800000E+00  1.20100000E+01  1.00800000E+00  1.00800000E+00
  1.20100000E+01  1.60000000E+01  1.60000000E+01
%FLAG ATOM_TYPE_INDEX                                                           
%FORMAT(10I8)                                                                   
       1       2       3       3       4       5       5       4       5       5
       3       6       6       3       4       5       5       5       3       3
       5       3       2       3       4       5       5       5       3       3
       5       4       5       5       3       3       5       3       2       3
       4       5       5       5       3       3       5       4       5       5
       3       3       5       3       2       3       4       5       5       5
       3       3       3       5       4       5       5       4       5       5
       3       6       6
%FLAG NUMBER_EXCLUDED_ATOMS                                                     
%FORMAT(10I8)                                                                   
      24      19      16      17      12       6       5       6       4       3
       2       1       1       9       5       3       2       1       8       7
       3      12      13      10       6       3       2       1       9       6
       4       3       1       1       6       7       3      11      10      10
       6       3       2       1       9       6       4       3       1       1
       5       7       3      10       7      11       6       3       2       1
      10       6       2       1       8       5       4       5       4       3
       2       1       1
%FLAG NONBONDED_PARM_INDEX                                                      
%FORMAT(10I8)                                                                   
       1       2       4       7      11      16       2       3       5       8
      12      17       4       5       6       9      13      18       7       8
       9      10      14      19      11      12      13      14      15      20
      16      17      18      19      20      21
%FLAG RESIDUE_LABEL                                                             
%FORMAT(20a4)                                                                   
HEM 
%FLAG RESIDUE_POINTER                                                           
%FORMAT(10I8)                                                                   
       1
%FLAG BOND_FORCE_CONSTANT                                                       
%FORMAT(5E16.8)                                                                 
  6.56000000E+02  3.40000000E+02  3.17000000E+02  3.10000000E+02  3.38000000E+02
  3.91000000E+02  2.73000000E+02  2.97000000E+02  4.18000000E+02  3.16000000E+02
  3.40000000E+02  3.40000000E+02  5.70000000E+02  2.97000000E+02  3.16000000E+02
  5.00000000E+01  5.00000000E+01
%FLAG BOND_EQUIL_VALUE                                                          
%FORMAT(5E16.8)                                                                 
  1.25000000E+00  1.09000000E+00  1.52200000E+00  1.52600000E+00  1.09000000E+00
  1.39100000E+00  1.44400000E+00  1.50100000E+00  1.35700000E+00  1.38400000E+00
  1.08000000E+00  1.08000000E+00  1.34000000E+00  1.50100000E+00  1.38400000E+00
  2.01000000E+00  2.01000000E+00
%FLAG ANGLE_FORCE_CONSTANT                                                      
%FORMAT(5E16.8)                                                                 
  8.00000000E+01  5.00000000E+01  3.50000000E+01  7.00000000E+01  5.00000000E+01
  6.30000000E+01  7.00000000E+01  3.00000000E+01  7.00000000E+01  3.50000000E+01
  6.30000000E+01  7.00000000E+01  7.00000000E+01  7.00000000E+01  7.00000000E+01
  7.00000000E+01  7.00000000E+01  3.50000000E+01  3.50000000E+01  7.00000000E+01
  3.50000000E+01  3.50000000E+01  7.00000000E+01  7.00000000E+01  7.00000000E+01
  5.00000000E+01  7.00000000E+01  7.00000000E+01  0.00000000E+00  0.00000000E+00
  3.00000000E+01  3.00000000E+01
%FLAG ANGLE_EQUIL_VALUE                                                         
%FORMAT(5E16.8)                                                                 
  2.19911580E+00  1.91113635E+00  1.91113635E+00  2.04203610E+00  1.91113635E+00
  1.93906163E+00  2.17991717E+00  2.05948940E+00  2.18864382E+00  1.91113635E+00
  1.98967620E+00  2.23751306E+00  1.86750310E+00  1.92509899E+00  2.19038915E+00
  1.83957782E+00  2.16595453E+00  2.09439600E+00  2.09439600E+00  2.17991717E+00
  2.09439600E+00  2.09439600E+00  2.09439600E+00  2.23751306E+00  1.92509899E+00
  1.57079700E+00  2.19038915E+00  1.83957782E+00  1.57079700E+00  1.57079700E+00
  2.22355042E+00  2.22355042E+00
%FLAG DIHEDRAL_FORCE_CONSTANT                                                   
%FORMAT(5E16.8)                                                                 
  0.00000000E+00  1.50000000E-01  1.55555556E-01  7.87500000E-01  0.00000000E+00
  1.97500000E+00  5.37500000E+00  1.42500000E+00  7.50000000E+00  1.05000000E+01
  1.00000000E+00
%FLAG DIHEDRAL_PERIODICITY                                                      
%FORMAT(5E16.8)                                                                 
  2.00000000E+00  3.00000000E+00  3.00000000E+00  2.00000000E+00  2.00000000E+00
  2.00000000E+00  2.00000000E+00  2.00000000E+00  2.00000000E+00  2.00000000E+00
  2.00000000E+00
%FLAG DIHEDRAL_PHASE                                                            
%FORMAT(5E16.8)                                                                 
  0.00000000E+00  0.00000000E+00  0.00000000E+00  3.14159400E+00  3.14159400E+00
  3.14159400E+00  3.14159400E+00  3.14159400E+00  3.14159400E+00  3.14159400E+00
  3.14159400E+00
%FLAG SCEE_SCALE_FACTOR                                                         
%FORMAT(5E16.8)                                                                 
  1.20000000E+00  1.20000000E+00  1.20000000E+00  1.20000000E+00  1.20000000E+00
  1.20000000E+00  1.20000000E+00  1.20000000E+00  1.20000000E+00  0.00000000E+00
  0.00000000E+00
%FLAG SCNB_SCALE_FACTOR                                                         
%FORMAT(5E16.8)                                                                 
  2.00000000E+00  2.00000000E+00  2.00000000E+00  2.00000000E+00  2.00000000E+00
  2.00000000E+00  2.00000000E+00  2.00000000E+00  2.00000000E+00  0.00000000E+00
  0.00000000E+00
%FLAG SOLTY                                                                     
%FORMAT(5E16.8)                                                                 
  0.00000000E+00  0.00000000E+00  0.00000000E+00  0.00000000E+00  0.00000000E+00
  0.00000000E+00  0.00000000E+00  0.00000000E+00  0.00000000E+00  0.00000000E+00
  0.00000000E+00  0.00000000E+00
%FLAG LENNARD_JONES_ACOEF                                                       
%FORMAT(5E16.8)                                                                 
  1.82601737E+03  5.39126780E+04  9.44293233E+05  5.32729013E+04  8.82619071E+05
  8.19971662E+05  6.00849612E+04  9.95480466E+05  9.24822270E+05  1.04308023E+06
  3.96868679E+03  8.96776989E+04  8.61541883E+04  9.71708117E+04  7.51607703E+03
  3.08441812E+04  6.06829342E+05  5.74393458E+05  6.47841731E+05  5.44261042E+04
  3.79876399E+05
%FLAG LENNARD_JONES_BCOEF                                                       
%FORMAT(5E16.8)                                                                 
  1.91102976E+01  1.41003593E+02  8.01323529E+02  1.18208929E+02  6.53361429E+02
  5.31102864E+02  1.33324425E+02  7.36907417E+02  5.99015525E+02  6.75612247E+02
  2.10897204E+01  1.36131731E+02  1.12529845E+02  1.26919150E+02  2.17257828E+01
  1.12438215E+02  6.77220874E+02  5.55666448E+02  6.26720080E+02  1.11805549E+02
  5.64885984E+02
%FLAG BONDS_INC_HYDROGEN                                                        
%FORMAT(10I8)                                                                   
     201     204       2     201     207       2     192     195       2     192
     198       2     186     189       5     168     171       2     168     174
       2     168     177       2     153     156       5     141     144      11
     141     147      11     135     138      12     120     123       2     120
     126       2     120     129       2     105     108       5      93      96
      11      93      99      11      87      90      12      72      75       2
      72      78       2      72      81       2      57      60       5      42
      45       2      42      48       2      42      51       2      21      24
       2      21      27       2      12      15       2      12      18       2
%FLAG BONDS_WITHOUT_HYDROGEN                                                    
%FORMAT(10I8)                                                                   
     210     213       1     210     216       1     201     210       3     192
     201       4     183     186       6     180     183       7     180     192
       8     165     168       8     165     180       9     162     183      10
     159     162      10     159     165       7     153     159       6     150
     153       6     135     141      13     132     135      14     132     150
       7     117     120       8     117     132       9     114     150      15
     111     114      15     111     117       7     105     111       6     102
     105       6      87      93      13      84      87      14      84     102
       7      69      72       8      69      84       9      66     102      10
      63      66      10      63      69       7      57      63       6      54
      57       6      39      42       8      39      54       7      30      33
       1      30      36       1      21      30       3      12      21       4
       9      12       8       9      39       9       6       9       7       6
     186       6       3       6      15       3      54      15       0       3
      16       0      66      17       0     114      16       0     162      17
%FLAG ANGLES_INC_HYDROGEN                                                       
%FORMAT(10I8)                                                                   
     207     201     210       2     204     201     207       3     204     201
     210       2     198     192     201       5     195     192     198       3
     195     192     201       5     192     201     204       5     192     201
     207       5     183     186     189       8     180     192     195      10
     180     192     198      10     174     168     177       3     171     168
     174       3     171     168     177       3     165     168     171      10
     165     168     174      10     165     168     177      10     156     153
     159       8     150     153     156       8     144     141     147      18
     138     135     141      19     135     141     144      21     135     141
     147      21     132     135     138      22     126     120     129       3
     123     120     126       3     123     120     129       3     117     120
     123      10     117     120     126      10     117     120     129      10
     108     105     111       8     102     105     108       8      96      93
      99      18      90      87      93      19      87      93      96      21
      87      93      99      21      84      87      90      22      78      72
      81       3      75      72      78       3      75      72      81       3
      69      72      75      10      69      72      78      10      69      72
      81      10      60      57      63       8      54      57      60       8
      48      42      51       3      45      42      48       3      45      42
      51       3      39      42      45      10      39      42      48      10
      39      42      51      10      27      21      30       2      24      21
      27       3      24      21      30       2      18      12      21       5
      15      12      18       3      15      12      21       5      12      21
      24       5      12      21      27       5       9      12      15      10
       9      12      18      10       6     186     189       8
%FLAG ANGLES_WITHOUT_HYDROGEN                                                   
%FORMAT(10I8)                                                                   
     213     210     216       1     201     210     213       4     201     210
     216       4     192     201     210       6     183     180     192       7
     180     183     186       9     180     192     201      11     168     165
     180      12     165     180     183      13     165     180     192      12
     162     159     165      14     162     183     180      14     162     183
     186      15     159     162     183      16     159     165     168       7
     159     165     180      13     153     159     162      15     153     159
     165       9     150     153     159      17     135     132     150      20
     132     135     141      23     132     150     153       9     120     117
     132      12     117     132     135      24     117     132     150      13
     114     111     117      25     114       0     162      26     114     150
     132      25     114     150     153      27     111     114     150      28
     111     117     120       7     111     117     132      13     105     111
     114      27     105     111     117       9     102     105     111      17
      87      84     102      20      84      87      93      23      84     102
     105       9      72      69      84      12      69      84      87      24
      69      84     102      13      66      63      69      14      66       0
     114      26      66       0     162      29      66     102      84      14
      66     102     105      15      63      66     102      16      63      69
      72       7      63      69      84      13      57      63      66      15
      57      63      69       9      54      57      63      17      42      39
      54       7      39      54      57       9      33      30      36       1
      21      30      33       4      21      30      36       4      12       9
      39      12      12      21      30       6       9       6     186       9
       9      12      21      11       9      39      42      12       9      39
      54      13       6       3      54      28       6       9      12       7
       6       9      39      13       6     186     183      17       3       0
      66      26       3       0     114      30       3       0     162      26
       3       6       9      25       3       6     186      27       3      54
      39      25       3      54      57      27       0       3       6      31
       0       3      54      31       0      66      63      32       0      66
     102      32       0     114     111      31       0     114     150      31
       0     162     159      32       0     162     183      32
%FLAG DIHEDRALS_INC_HYDROGEN                                                    
%FORMAT(10I8)                                                                   
     207     201     210     213       1     207     201     210     216       1
     204     201     210     213       1     204     201     210     216       1
     198     192     201     204       2     198     192     201     207       2
     198     192     201     210       3     195     192     201     204       2
     195     192     201     207       2     195     192     201     210       3
     183     180     192     195       5     183     180     192     198       5
     180     183     186     189       6     180     192     201     204       3
     180     192     201     207       3     177     168     165     180       5
     174     168     165     180       5     171     168     165     180       5
     165     180     192     195       5     165     180     192     198       5
     162     183     186     189       6     159     165     168     171       5
     159     165     168     174       5     159     165     168     177       5
     156     153     159     162       6     156     153     159     165       6
     138     135     132     150       5     138     135     141     144       9
     138     135     141     147       9     132     135     141     144       9
     132     135     141     147       9     132     150     153     156       6
     129     120     117     132       5     126     120     117     132       5
     123     120     117     132       5     117     132     135     138       5
     114     150     153     156       6     111     117     120     123       5
     111     117     120     126       5     111     117     120     129       5
     108     105     111     114       6     108     105     111     117       6
      90      87      84     102       5      90      87      93      96       9
      90      87      93      99       9      84      87      93      96       9
      84      87      93      99       9      84     102     105     108       6
      81      72      69      84       5      78      72      69      84       5
      75      72      69      84       5      69      84      87      90       5
      66     102     105     108       6      63      69      72      75       5
      63      69      72      78       5      63      69      72      81       5
      60      57      63      66       6      60      57      63      69       6
      51      42      39      54       5      48      42      39      54       5
      45      42      39      54       5      39      54      57      60       6
      27      21      30      33       1      27      21      30      36       1
      24      21      30      33       1      24      21      30      36       1
      18      12       9      39       5      18      12      21      24       2
      18      12      21      27       2      18      12      21      30       3
      15      12       9      39       5      15      12      21      24       2
      15      12      21      27       2      15      12      21      30       3
       9       6     186     189       6       9      12      21      24       3
       9      12      21      27       3       9      39      42      45       5
       9      39      42      48       5       9      39      42      51       5
       6       9      12      15       5       6       9      12      18       5
       3       6     186     189       6       3      54      57      60       6
%FLAG DIHEDRALS_WITHOUT_HYDROGEN                                                
%FORMAT(10I8)                                                                   
     192     201     210     213       1     192     201     210     216       1
     186     183     180     192       4     183     180     192     201       5
     180     192     201     210       3     168     165     180     183       7
     168     165     180     192       7     165     159    -162     183       8
     165     180     183     186       4     165     180     192     201       5
     162     159     165     168       4     162     159    -165     180       4
     162     183    -180     165       4     162     183     180     192       4
     159     162    -183     180       8     159     162     183     186       8
     159     165    -180     183       7     159     165     180     192       7
     153     159     162     183       8     153     159     165     168       4
     153     159     165     180       4     150     153     159     162       6
     150     153     159     165       6     162       0    -114     150       5
     141     135     132     150       5     135     132     150     153       4
     132     150     153     159       6     120     117     132     135       7
     120     117     132     150       7     117     111    -114     150       8
     117     132     135     141       5     117     132     150     153       4
     114     111     117     120       4     114     111    -117     132       4
     114       0     162     159       5     114       0     162     183       5
     114     150    -132     117       4     114     150     132     135       4
     114     150    -153     159       6     162       0     114     111       5
     111     114    -150     132       8     111     114     150     153       8
     111     117     132     135       7     111     117    -132     150       7
     105     111     114     150       8     105     111     117     120       4
     105     111     117     132       4     102     105     111     114       6
     102     105     111     117       6     114       0     -66     102       5
     162       0      66     102       5      93      87      84     102       5
      87      84     102     105       4      84     102     105     111       6
      72      69      84      87       7      72      69      84     102       7
      69      63     -66     102       8      69      84      87      93       5
      69      84     102     105       4      66      63      69      72       4
      66      63     -69      84       4      66       0     114     111       5
      66       0     114     150       5      66       0     162     159       5
      66       0     162     183       5      66     102     -84      69       4
      66     102      84      87       4      66     102    -105     111       6
     114       0      66      63       5     162       0      66      63       5
      63      66    -102      84       8      63      66     102     105       8
      63      69      84      87       7      63      69     -84     102       7
      57      63      66     102       8      57      63      69      72       4
      57      63      69      84       4      54      57      63      66       6
      54      57      63      69       6      66       0      -3      54       5
     114       0       3      54       5     162       0       3      54       5
      54       3       6     186       8      42      39      54      57       4
      39       9       6     186       4      39      54      57      63       6
      21      12       9      39       5      12       9       6     186       4
      12       9      39      42       7      12       9      39      54       7
      12      21      30      33       1      12      21      30      36       1
       9       6      -3      54       8       9       6     186     183       6
       9      12      21      30       3       9      39      54      57       4
      66       0       3       6       5     114       0       3       6       5
     162       0       3       6       5       6       3     -54      39       8
       6       3      54      57       8       6       9      12      21       5
       6       9      39      42       7       6       9     -39      54       7
       6     186     183     180       6       6     186    -183     162       6
       3       0      66      63       5       3       0      66     102       5
       3       0     114     111       5       3       0     114     150       5
       3       0     162     159       5       3       0     162     183       5
       3       6       9      12       4       3       6      -9      39       4
       3       6    -186     183       6       3      54     -39       9       4
       3      54      39      42       4       3      54     -57      63       6
       0       3       6       9       8       0       3       6     186       8
       0       3      54      39       8       0       3      54      57       8
       0      66     -63      57       8       0      66      63      69       8
       0      66     102      84       8       0      66     102     105       8
       0     114    -111     105       8       0     114     111     117       8
       0     114     150     132       8       0     114     150     153       8
       0     162    -159     153       8       0     162     159     165       8
       0     162     183     180       8       0     162    -183     186       8
     201     213    -210    -216      10     162     180    -183    -186      11
     165     183    -180    -192      11     159     168    -165    -180      11
       0     159    -162    -183      11     153     162    -159    -165      11
     114     132    -150    -153      11     117     135    -132    -150      11
     111     120    -117    -132      11       0     111    -114    -150      11
     105     114    -111    -117      11      66      84    -102    -105      11
      69      87     -84    -102      11      63      72     -69     -84      11
       0      63     -66    -102      11      57      66     -63     -69      11
       3      39     -54     -57      11       9      42     -39     -54      11
      21      33     -30     -36      10       6      12      -9     -39      11
       3       9      -6    -186      11       0       6      -3     -54      11
%FLAG EXCLUDED_ATOMS_LIST                                                       
%FORMAT(10I8)                                                                   
       2       3       4      14      19      20      22      23      24      29
      35      36      38      39      40      45      51      52      54      55
      56      61      62      63       3       4       5      14      15      19
      20      21      22      23      35      38      39      51      54      55
      62      63      64       4       5       6       7       8      14      15
      19      20      23      39      55      61      62      63      64       5
       6       7       8       9      10      11      14      15      16      17
      18      19      20      62      63      64       6       7       8       9
      10      11      12      13      14      15      19      63       7       8
       9      10      11      14       8       9      10      11      14       9
      10      11      12      13      14      10      11      12      13      11
      12      13      12      13      13       0      15      16      17      18
      19      20      21      22      63      16      17      18      19      20
      17      18      19      18      19      19      20      21      22      23
      24      39      55      63      21      22      23      24      25      29
      35      22      23      24      23      24      25      26      27      28
      29      30      35      36      39      55      24      25      29      30
      35      36      37      38      39      51      54      55      62      25
      26      27      28      29      30      31      32      35      36      26
      27      28      29      30      35      27      28      29      28      29
      29      30      31      32      33      34      35      36      37      38
      31      32      33      34      35      36      32      33      34      35
      33      34      35      34       0      36      37      38      39      40
      55      37      38      39      40      41      45      51      38      39
      40      39      40      41      42      43      44      45      46      51
      52      55      40      41      45      46      51      52      53      54
      55      62      41      42      43      44      45      46      47      48
      51      52      42      43      44      45      46      51      43      44
      45      44      45      45      46      47      48      49      50      51
      52      53      54      47      48      49      50      51      52      48
      49      50      51      49      50      51      50       0      52      53
      54      55      56      53      54      55      56      57      61      62
      54      55      56      55      56      57      58      59      60      61
      62      63      65      56      57      61      62      63      64      65
      57      58      59      60      61      62      63      65      66      67
      68      58      59      60      61      62      65      59      60      61
      60      61      61      62      63      64      65      66      67      68
      69      70      71      63      64      65      66      67      68      64
      65       0      66      67      68      69      70      71      72      73
      67      68      69      70      71      68      69      70      71      69
      70      71      72      73      70      71      72      73      71      72
      73      72      73      73       0
%FLAG HBOND_ACOEF                                                               
%FORMAT(5E16.8)                                                                 

%FLAG HBOND_BCOEF                                                               
%FORMAT(5E16.8)                                                                 

%FLAG HBCUT                                                                     
%FORMAT(5E16.8)                                                                 

%FLAG AMBER_ATOM_TYPE                                                           
%FORMAT(20a4)                                                                   
FE  NP  CC  CB  CT  HC  HC  CT  HC  HC  C   O2  O2  CB  CT  HC  HC  HC  CC  CD  
HC  CC  NO  CB  CT  HC  HC  HC  CB  CY  HC  CX  HC  HC  CC  CD  HC  CC  NP  CB  
CT  HC  HC  HC  CB  CY  HC  CX  HC  HC  CC  CD  HC  CC  NO  CB  CT  HC  HC  HC  
CB  CC  CD  HC  CT  HC  HC  CT  HC  HC  C   O2  O2  
%FLAG TREE_CHAIN_CLASSIFICATION                                                 
%FORMAT(20a4)                                                                   
M   B   B   B   3   E   E   3   E   E   B   E   E   S   3   E   E   E   E   S   
E   S   E   B   3   E   E   E   B   B   E   B   E   E   B   B   E   S   E   B   
3   E   E   E   B   B   E   B   E   E   B   B   E   S   E   B   3   E   E   E   
B   B   B   E   3   E   E   3   E   E   B   E   E   
%FLAG JOIN_ARRAY                                                                
%FORMAT(10I8)                                                                   
       0       0       0       0       0       0       0       0       0       0
       0       0       0       0       0       0       0       0       0       0
       0       0       0       0       0       0       0       0       0       0
       0       0       0       0       0       0       0       0       0       0
       0       0       0       0       0       0       0       0       0       0
       0       0       0       0       0       0       0       0       0       0
       0       0       0       0       0       0       0       0       0       0
       0       0       0
%FLAG IROTAT                                                                    
%FORMAT(10I8)                                                                   
       0       0       0       0       0       0       0       0       0       0
       0       0       0       0       0       0       0       0       0       0
       0       0       0       0       0       0       0       0       0       0
       0       0       0       0       0       0       0       0       0       0
       0       0       0       0       0       0       0       0       0       0
       0       0       0       0       0       0       0       0       0       0
       0       0       0       0       0       0       0       0       0       0
       0       0       0
%FLAG RADIUS_SET                                                                
%FORMAT(1a80)                                                                   
modified Bondi radii (mbondi)                                                   
%FLAG RADII                                                                     
%FORMAT(5E16.8)                                                                 
  1.50000000E+00  1.55000000E+00  1.70000000E+00  1.70000000E+00  1.70000000E+00
  1.30000000E+00  1.30000000E+00  1.70000000E+00  1.30000000E+00  1.30000000E+00
  1.70000000E+00  1.50000000E+00  1.50000000E+00  1.70000000E+00  1.70000000E+00
  1.30000000E+00  1.30000000E+00  1.30000000E+00  1.70000000E+00  1.70000000E+00
  1.30000000E+00  1.70000000E+00  1.50000000E+00  1.70000000E+00  1.70000000E+00
  1.30000000E+00  1.30000000E+00  1.30000000E+00  1.70000000E+00  1.70000000E+00
  1.30000000E+00  1.70000000E+00  1.30000000E+00  1.30000000E+00  1.70000000E+00
  1.70000000E+00  1.30000000E+00  1.70000000E+00  1.55000000E+00  1.70000000E+00
  1.70000000E+00  1.30000000E+00  1.30000000E+00  1.30000000E+00  1.70000000E+00
  1.70000000E+00  1.30000000E+00  1.70000000E+00  1.30000000E+00  1.30000000E+00
  1.70000000E+00  1.70000000E+00  1.30000000E+00  1.70000000E+00  1.50000000E+00
  1.70000000E+00  1.70000000E+00  1.30000000E+00  1.30000000E+00  1.30000000E+00
  1.70000000E+00  1.70000000E+00  1.70000000E+00  1.30000000E+00  1.70000000E+00
  1.30000000E+00  1.30000000E+00  1.70000000E+00  1.30000000E+00  1.30000000E+00
  1.70000000E+00  1.50000000E+00  1.50000000E+00
%FLAG SCREEN                                                                    
%FORMAT(5E16.8)                                                                 
  8.00000000E-01  7.90000000E-01  7.20000000E-01  7.20000000E-01  7.20000000E-01
  8.50000000E-01  8.50000000E-01  7.20000000E-01  8.50000000E-01  8.50000000E-01
  7.20000000E-01  8.50000000E-01  8.50000000E-01  7.20000000E-01  7.20000000E-01
  8.50000000E-01  8.50000000E-01  8.50000000E-01  7.20000000E-01  7.20000000E-01
  8.50000000E-01  7.20000000E-01  8.00000000E-01  7.20000000E-01  7.20000000E-01
  8.50000000E-01  8.50000000E-01  8.50000000E-01  7.20000000E-01  7.20000000E-01
  8.50000000E-01  7.20000000E-01  8.50000000E-01  8.50000000E-01  7.20000000E-01
  7.20000000E-01  8.50000000E-01  7.20000000E-01  7.90000000E-01  7.20000000E-01
  7.20000000E-01  8.50000000E-01  8.50000000E-01  8.50000000E-01  7.20000000E-01
  7.20000000E-01  8.50000000E-01  7.20000000E-01  8.50000000E-01  8.50000000E-01
  7.20000000E-01  7.20000000E-01  8.50000000E-01  7.20000000E-01  8.00000000E-01
  7.20000000E-01  7.20000000E-01  8.50000000E-01  8.50000000E-01  8.50000000E-01
  7.20000000E-01  7.20000000E-01  7.20000000E-01  8.50000000E-01  7.20000000E-01
  8.50000000E-01  8.50000000E-01  7.20000000E-01  8.50000000E-01  8.50000000E-01
  7.20000000E-01  8.50000000E-01  8.50000000E-01
%FLAG IPOL                                                                      
%FORMAT(1I8)                                                                    
       0
%FLAG CMAP_COUNT                                                                
%FORMAT(2I8)                                                                    
       0       0                                                                
%FLAG CMAP_RESOLUTION                                                           
%FORMAT(20I4)                                                                   

%FLAG CMAP_INDEX                                                                
%FORMAT(6I8)                                                                    

