%VERSION  VERSION_STAMP = V0001.000  DATE = 02/15/26  14:51:34                  
%FLAG TITLE                                                                     
%FORMAT(20a4)                                                                   
MOW                                                                             
%FLAG POINTERS                                                                  
%FORMAT(10I8)                                                                   
       4       3       0       3       0       3       0       0       0       0
       7       1       3       3       0       2       2       0       3       0
       0       0       0       0       0       0       0       0       4       0
       0
%FLAG ATOM_NAME                                                                 
%FORMAT(20a4)                                                                   
Mo  O   H1  H2  
%FLAG CHARGE                                                                    
%FORMAT(5E16.8)                                                                 
  1.54680722E+01 -1.12088101E+01  6.32536122E+00  6.32536122E+00
%FLAG ATOMIC_NUMBER                                                             
%FORMAT(10I8)                                                                   
      -1      -1      -1      -1
%FLAG MASS                                                                      
%FORMAT(5E16.8)                                                                 
  9.60000000E+01  1.60000000E+01  1.00800000E+00  1.00800000E+00
%FLAG ATOM_TYPE_INDEX                                                           
%FORMAT(10I8)                                                                   
       1       2       3       3
%FLAG NUMBER_EXCLUDED_ATOMS                                                     
%FORMAT(10I8)                                                                   
       3       2       1       1
%FLAG NONBONDED_PARM_INDEX                                                      
%FORMAT(10I8)                                                                   
       1       2       4       2       3       5       4       5       6
%FLAG RESIDUE_LABEL                                                             
%FORMAT(20a4)                                                                   
MOW 
%FLAG RESIDUE_POINTER                                                           
%FORMAT(10I8)                                                                   
       1
%FLAG BOND_FORCE_CONSTANT                                                       
%FORMAT(5E16.8)                                                                 
  5.13800000E+02  8.68000000E+01
%FLAG BOND_EQUIL_VALUE                                                          
%FORMAT(5E16.8)                                                                 
  9.80000000E-01  2.50000000E+00
%FLAG ANGLE_FORCE_CONSTANT                                                      
%FORMAT(5E16.8)                                                                 
  3.09750000E+01  2.19960000E+01
%FLAG ANGLE_EQUIL_VALUE                                                         
%FORMAT(5E16.8)                                                                 
  1.87523491E+00  1.70459400E+00
%FLAG DIHEDRAL_FORCE_CONSTANT                                                   
%FORMAT(5E16.8)                                                                 

%FLAG DIHEDRAL_PERIODICITY                                                      
%FORMAT(5E16.8)                                                                 

%FLAG DIHEDRAL_PHASE                                                            
%FORMAT(5E16.8)                                                                 

%FLAG SCEE_SCALE_FACTOR                                                         
%FORMAT(5E16.8)                                                                 

%FLAG SCNB_SCALE_FACTOR                                                         
%FORMAT(5E16.8)                                                                 

%FLAG SOLTY                                                                     
%FORMAT(5E16.8)                                                                 
  0.00000000E+00  0.00000000E+00  0.00000000E+00
%FLAG LENNARD_JONES_ACOEF                                                       
%FORMAT(5E16.8)                                                                 
  3.65765196E+04  1.61336334E+05  6.61606807E+05  2.25721089E+01  1.83179864E+02
  1.10360882E-05
%FLAG LENNARD_JONES_BCOEF                                                       
%FORMAT(5E16.8)                                                                 
  9.05159676E+01  2.45544914E+02  6.42252307E+02  1.21028468E+00  4.45329202E+00
  4.55498033E-04
%FLAG BONDS_INC_HYDROGEN                                                        
%FORMAT(10I8)                                                                   

%FLAG BONDS_WITHOUT_HYDROGEN                                                    
%FORMAT(10I8)                                                                   
       3       6       1       3       9       1       0       3       2
%FLAG ANGLES_INC_HYDROGEN                                                       
%FORMAT(10I8)                                                                   

%FLAG ANGLES_WITHOUT_HYDROGEN                                                   
%FORMAT(10I8)                                                                   
       6       3       9       1       0       3       6       2       0       3
       9       2
%FLAG DIHEDRALS_INC_HYDROGEN                                                    
%FORMAT(10I8)                                                                   

%FLAG DIHEDRALS_WITHOUT_HYDROGEN                                                
%FORMAT(10I8)                                                                   

%FLAG EXCLUDED_ATOMS_LIST                                                       
%FORMAT(10I8)                                                                   
       2       3       4       3       4       4       0
%FLAG HBOND_ACOEF                                                               
%FORMAT(5E16.8)                                                                 

%FLAG HBOND_BCOEF                                                               
%FORMAT(5E16.8)                                                                 

%FLAG HBCUT                                                                     
%FORMAT(5E16.8)                                                                 

%FLAG AMBER_ATOM_TYPE                                                           
%FORMAT(20a4)                                                                   
Mo  OV  HV  HV  
%FLAG TREE_CHAIN_CLASSIFICATION                                                 
%FORMAT(20a4)                                                                   
M   M   E   E   
%FLAG JOIN_ARRAY                                                                
%FORMAT(10I8)                                                                   
       0       0       0       0
%FLAG IROTAT                                                                    
%FORMAT(10I8)                                                                   
       0       0       0       0
%FLAG RADIUS_SET                                                                
%FORMAT(1a80)                                                                   
modified Bondi radii (mbondi)                                                   
%FLAG RADII                                                                     
%FORMAT(5E16.8)                                                                 
  1.50000000E+00  1.50000000E+00  1.50000000E+00  1.50000000E+00
%FLAG SCREEN                                                                    
%FORMAT(5E16.8)                                                                 
  8.00000000E-01  8.00000000E-01  8.00000000E-01  8.00000000E-01
%FLAG IPOL                                                                      
%FORMAT(1I8)                                                                    
       0
