%VERSION  VERSION_STAMP = V0001.000  DATE = 02/13/26  14:15:19                  
%FLAG TITLE                                                                     
%FORMAT(20a4)                                                                   
SF4                                                                             
%FLAG POINTERS                                                                  
%FORMAT(10I8)                                                                   
       8       2       0      12       0      24       0      48       0       0
      29       1      12      24      48       8      18       1       6       0
       0       0       0       0       0       0       0       0       8       0
       0
%FLAG ATOM_NAME                                                                 
%FORMAT(20a4)                                                                   
FE3 SN  FE2 SL  FE1 SM  FE4 SK  
%FLAG CHARGE                                                                    
%FORMAT(5E16.8)                                                                 
  3.97975032E+00 -6.37780500E+00  4.01983938E+00 -6.39238284E+00  4.00890600E+00
 -6.44704974E+00  4.00526154E+00 -6.42518298E+00
%FLAG ATOMIC_NUMBER                                                             
%FORMAT(10I8)                                                                   
      -1      -1      -1      -1      -1      -1      -1      -1
%FLAG MASS                                                                      
%FORMAT(5E16.8)                                                                 
  5.60000000E+01  3.20000000E+01  5.60000000E+01  3.20000000E+01  5.60000000E+01
  3.20000000E+01  5.60000000E+01  3.20000000E+01
%FLAG ATOM_TYPE_INDEX                                                           
%FORMAT(10I8)                                                                   
       1       2       1       2       1       2       1       2
%FLAG NUMBER_EXCLUDED_ATOMS                                                     
%FORMAT(10I8)                                                                   
       7       6       5       4       3       2       1       1
%FLAG NONBONDED_PARM_INDEX                                                      
%FORMAT(10I8)                                                                   
       1       2       2       3
%FLAG RESIDUE_LABEL                                                             
%FORMAT(20a4)                                                                   
SF4 
%FLAG RESIDUE_POINTER                                                           
%FORMAT(10I8)                                                                   
       1
%FLAG BOND_FORCE_CONSTANT                                                       
%FORMAT(5E16.8)                                                                 
  7.53000000E+01  6.00000000E+01  7.53000000E+01  6.00000000E+01  6.00000000E+01
  7.53000000E+01  6.00000000E+01  7.53000000E+01
%FLAG BOND_EQUIL_VALUE                                                          
%FORMAT(5E16.8)                                                                 
  2.22000000E+00  2.35000000E+00  2.22000000E+00  2.35000000E+00  2.35000000E+00
  2.22000000E+00  2.35000000E+00  2.22000000E+00
%FLAG ANGLE_FORCE_CONSTANT                                                      
%FORMAT(5E16.8)                                                                 
  1.30000000E+01  1.30000000E+01  1.05000000E+01  1.05000000E+01  7.00000000E+00
  7.00000000E+00  1.30000000E+01  1.05000000E+01  8.50000000E+00  1.05000000E+01
  7.00000000E+00  1.30000000E+01  7.00000000E+00  1.05000000E+01  8.50000000E+00
  1.05000000E+01  1.05000000E+01  1.05000000E+01
%FLAG ANGLE_EQUIL_VALUE                                                         
%FORMAT(5E16.8)                                                                 
  1.82386985E+00  1.82386985E+00  1.27409090E+00  1.27409090E+00  1.86750310E+00
  1.86750310E+00  1.82386985E+00  1.27409090E+00  1.24442029E+00  1.27409090E+00
  1.86750310E+00  1.82386985E+00  1.86750310E+00  1.27409090E+00  1.24442029E+00
  1.27409090E+00  1.27409090E+00  1.27409090E+00
%FLAG DIHEDRAL_FORCE_CONSTANT                                                   
%FORMAT(5E16.8)                                                                 
  0.00000000E+00
%FLAG DIHEDRAL_PERIODICITY                                                      
%FORMAT(5E16.8)                                                                 
  2.00000000E+00
%FLAG DIHEDRAL_PHASE                                                            
%FORMAT(5E16.8)                                                                 
  3.14159400E+00
%FLAG SCEE_SCALE_FACTOR                                                         
%FORMAT(5E16.8)                                                                 
  1.20000000E+00
%FLAG SCNB_SCALE_FACTOR                                                         
%FORMAT(5E16.8)                                                                 
  2.00000000E+00
%FLAG SOLTY                                                                     
%FORMAT(5E16.8)                                                                 
  0.00000000E+00  0.00000000E+00  0.00000000E+00  0.00000000E+00  0.00000000E+00
  0.00000000E+00
%FLAG LENNARD_JONES_ACOEF                                                       
%FORMAT(5E16.8)                                                                 
  4.83325601E+03  1.65510857E+05  4.19430400E+06
%FLAG LENNARD_JONES_BCOEF                                                       
%FORMAT(5E16.8)                                                                 
  1.58533691E+01  1.94273730E+02  2.04800000E+03
%FLAG BONDS_INC_HYDROGEN                                                        
%FORMAT(10I8)                                                                   

%FLAG BONDS_WITHOUT_HYDROGEN                                                    
%FORMAT(10I8)                                                                   
      18      21       1      15      18       2      12      15       3      12
      21       4       9      12       4       6       9       5       6      21
       5       3       6       6       3      18       2       0       3       7
       0       9       8       0      15       7
%FLAG ANGLES_INC_HYDROGEN                                                       
%FORMAT(10I8)                                                                   

%FLAG ANGLES_WITHOUT_HYDROGEN                                                   
%FORMAT(10I8)                                                                   
      15      12      21       1      15      18      21       2      12      15
      18       3      12      21      18       4       9       6      21       5
       9      12      15       1       9      12      21       6       9       0
      15       7       6       3      18       8       6       9      12       9
       6      21      18      10       6      21      12       9       3       0
       9       7       3       0      15      11       3       6       9      12
       3       6      21      12       3      18      15      13       3      18
      21       2       0       3       6      14       0       3      18      15
       0       9       6      16       0       9      12      17       0      15
      12      18       0      15      18      15
%FLAG DIHEDRALS_INC_HYDROGEN                                                    
%FORMAT(10I8)                                                                   

%FLAG DIHEDRALS_WITHOUT_HYDROGEN                                                
%FORMAT(10I8)                                                                   
      18      15     -12      21       1      18       3      -6      21       1
      15      12     -21      18       1      15       0      -3      18       1
      12       9      -6      21       1      15       0      -9      12       1
      12      15     -18      21       1      12      21     -18      15       1
       9       6       3      18       1       9       6     -21      18       1
       9       6     -21      12       1       9      12     -15      18       1
       9      12     -21      18       1       9       0      -3      18       1
       9       0     -15      12       1       9       0     -15      18       1
       9       0      -3       6       1      15       0       3       6       1
       6       3     -18      15       1       6       3     -18      21       1
       6       9     -12      15       1       6       9     -12      21       1
      15       0      -9       6       1       6      21     -18      15       1
       6      21     -12       9       1       6      21     -12      15       1
       3       0      -9       6       1       3       0       9      12       1
       3       0     -15      12       1       3       0     -15      18       1
       3       6      -9      12       1       3       6     -21      18       1
       3       6     -21      12       1       3      18     -15      12       1
       3      18     -21       6       1       3      18     -21      12       1
       0       3      -6       9       1       0       3       6      21       1
       0       3     -18      15       1       0       3     -18      21       1
       0       9      -6       3       1       0       9      -6      21       1
       0       9     -12      15       1       0       9     -12      21       1
       0      15     -12       9       1       0      15     -12      21       1
       0      15     -18      21       1       0      15     -18       3       1
%FLAG EXCLUDED_ATOMS_LIST                                                       
%FORMAT(10I8)                                                                   
       2       3       4       5       6       7       8       3       4       5
       6       7       8       4       5       6       7       8       5       6
       7       8       6       7       8       7       8       8       0
%FLAG HBOND_ACOEF                                                               
%FORMAT(5E16.8)                                                                 

%FLAG HBOND_BCOEF                                                               
%FORMAT(5E16.8)                                                                 

%FLAG HBCUT                                                                     
%FORMAT(5E16.8)                                                                 

%FLAG AMBER_ATOM_TYPE                                                           
%FORMAT(20a4)                                                                   
FD  SD  FO  SU  FU  SD  FP  SU  
%FLAG TREE_CHAIN_CLASSIFICATION                                                 
%FORMAT(20a4)                                                                   
M   B   E   M   M   E   S   M   
%FLAG JOIN_ARRAY                                                                
%FORMAT(10I8)                                                                   
       0       0       0       0       0       0       0       0
%FLAG IROTAT                                                                    
%FORMAT(10I8)                                                                   
       0       0       0       0       0       0       0       0
%FLAG RADIUS_SET                                                                
%FORMAT(1a80)                                                                   
modified Bondi radii (mbondi)                                                   
%FLAG RADII                                                                     
%FORMAT(5E16.8)                                                                 
  1.50000000E+00  1.50000000E+00  1.50000000E+00  1.50000000E+00  1.50000000E+00
  1.50000000E+00  1.50000000E+00  1.50000000E+00
%FLAG SCREEN                                                                    
%FORMAT(5E16.8)                                                                 
  8.00000000E-01  8.00000000E-01  8.00000000E-01  8.00000000E-01  8.00000000E-01
  8.00000000E-01  8.00000000E-01  8.00000000E-01
%FLAG IPOL                                                                      
%FORMAT(1I8)                                                                    
       0
%FLAG CMAP_COUNT                                                                
%FORMAT(2I8)                                                                    
       0       0                                                                
%FLAG CMAP_RESOLUTION                                                           
%FORMAT(20I4)                                                                   

%FLAG CMAP_INDEX                                                                
%FORMAT(6I8)                                                                    

